; em.mdp - energy minimization
define                   = {define}
integrator               = steep
emtol                    = {emtol}
emstep                   = {emstep}
nsteps                   = {nsteps}
nstlist                  = 1
cutoff-scheme            = Verlet
coulombtype              = PME
rcoulomb                 = 1.0
rvdw                     = 1.0
pbc                      = xyz
