; em.mdp - energy minimization
define                   = {define}
integrator               = steep
emtol                    = {emtol}
emstep                   = {emstep}
nsteps                   = {nsteps}
nstlist                  = 1
cutoff-scheme            = Verlet
coulombtype              = {coulombtype}
rcoulomb                 = {rcoulomb}
rvdw                     = {rvdw}
pbc                      = xyz
